 Entering Gaussian System, Link 0=g03
 Initial command:
 /sw/gaussian/g03/l1.exe /sw/gaussian/scratch/Gau-22384.inp -scrdir=/sw/gaussian/scratch/
 Entering Link 1 = /sw/gaussian/g03/l1.exe PID=     22386.
  
 Copyright (c) 1988,1990,1992,1993,1995,1998,2003, Gaussian, Inc.
                  All Rights Reserved.
  
 This is the Gaussian(R) 03 program.  It is based on the
 the Gaussian(R) 98 system (copyright 1998, Gaussian, Inc.),
 the Gaussian(R) 94 system (copyright 1995, Gaussian, Inc.),
 the Gaussian 92(TM) system (copyright 1992, Gaussian, Inc.),
 the Gaussian 90(TM) system (copyright 1990, Gaussian, Inc.),
 the Gaussian 88(TM) system (copyright 1988, Gaussian, Inc.),
 the Gaussian 86(TM) system (copyright 1986, Carnegie Mellon
 University), and the Gaussian 82(TM) system (copyright 1983,
 Carnegie Mellon University). Gaussian is a federally registered
 trademark of Gaussian, Inc.
  
 This software contains proprietary and confidential information,
 including trade secrets, belonging to Gaussian, Inc.
  
 This software is provided under written license and may be
 used, copied, transmitted, or stored only in accord with that
 written license.
  
 The following legend is applicable only to US Government
 contracts under DFARS:
  
                    RESTRICTED RIGHTS LEGEND
  
 Use, duplication or disclosure by the US Government is subject
 to restrictions as set forth in subparagraph (c)(1)(ii) of the
 Rights in Technical Data and Computer Software clause at DFARS
 252.227-7013.
  
 Gaussian, Inc.
 Carnegie Office Park, Building 6, Pittsburgh, PA 15106 USA
  
 The following legend is applicable only to US Government
 contracts under FAR:
  
                    RESTRICTED RIGHTS LEGEND
  
 Use, reproduction and disclosure by the US Government is subject
 to restrictions as set forth in subparagraph (c) of the
 Commercial Computer Software - Restricted Rights clause at FAR
 52.227-19.
  
 Gaussian, Inc.
 Carnegie Office Park, Building 6, Pittsburgh, PA 15106 USA
  
  
 ---------------------------------------------------------------
 Warning -- This program may not be used in any manner that
 competes with the business of Gaussian, Inc. or will provide
 assistance to any competitor of Gaussian, Inc.  The licensee
 of this program is prohibited from giving any competitor of
 Gaussian, Inc. access to this program.  By using this program,
 the user acknowledges that Gaussian, Inc. is engaged in the
 business of creating and licensing software in the field of
 computational chemistry and represents and warrants to the
 licensee that it is not a competitor of Gaussian, Inc. and that
 it will not use this program in any manner prohibited above.
 ---------------------------------------------------------------
  

 Cite this work as:
 Gaussian 03, Revision B.04,
 M. J. Frisch, G. W. Trucks, H. B. Schlegel, G. E. Scuseria, 
 M. A. Robb, J. R. Cheeseman, J. A. Montgomery, Jr., T. Vreven, 
 K. N. Kudin, J. C. Burant, J. M. Millam, S. S. Iyengar, J. Tomasi, 
 V. Barone, B. Mennucci, M. Cossi, G. Scalmani, N. Rega, 
 G. A. Petersson, H. Nakatsuji, M. Hada, M. Ehara, K. Toyota, 
 R. Fukuda, J. Hasegawa, M. Ishida, T. Nakajima, Y. Honda, O. Kitao, 
 H. Nakai, M. Klene, X. Li, J. E. Knox, H. P. Hratchian, J. B. Cross, 
 C. Adamo, J. Jaramillo, R. Gomperts, R. E. Stratmann, O. Yazyev, 
 A. J. Austin, R. Cammi, C. Pomelli, J. W. Ochterski, P. Y. Ayala, 
 K. Morokuma, G. A. Voth, P. Salvador, J. J. Dannenberg, 
 V. G. Zakrzewski, S. Dapprich, A. D. Daniels, M. C. Strain, 
 O. Farkas, D. K. Malick, A. D. Rabuck, K. Raghavachari, 
 J. B. Foresman, J. V. Ortiz, Q. Cui, A. G. Baboul, S. Clifford, 
 J. Cioslowski, B. B. Stefanov, G. Liu, A. Liashenko, P. Piskorz, 
 I. Komaromi, R. L. Martin, D. J. Fox, T. Keith, M. A. Al-Laham, 
 C. Y. Peng, A. Nanayakkara, M. Challacombe, P. M. W. Gill, 
 B. Johnson, W. Chen, M. W. Wong, C. Gonzalez, and J. A. Pople, 
 Gaussian, Inc., Pittsburgh PA, 2003.
 
 ******************************************
 Gaussian 03:  MacOSX-G03RevB.04 2-Jun-2003
                10-Jan-2005 
 ******************************************
 %chk=testhalf2
 ----------------------------------------------
 #RHF/6-311+G(d,p) Polar CPHF=RdFreq NoSymmetry
 ----------------------------------------------
 1/38=1,83=1/1;
 2/15=1,17=6,18=5,40=1/2;
 3/5=4,6=6,7=111,11=1,16=1,25=1,30=1/1,2,3;
 4/7=1/1;
 5/5=2,38=5/2;
 8/6=4,10=90,11=11/1;
 10/6=1,13=10,31=1,72=3/2;
 6/7=2,8=2,9=2,10=2,28=1/1;
 99/5=1,9=1/99;
 ------
 step 2
 ------
 Symbolic Z-matrix:
 Charge = -1 Multiplicity = 1
 S                     0.        0.        0. 
 O                     0.0012   -0.0008    1.6332 
 O                    -1.2111    0.7046   -0.3565 
 O                    -0.0001   -1.4072   -0.2937 
 O                     1.2105    0.7048   -0.3583 
 C                     0.0018    1.2517    2.2632 
 C                     0.003     1.0167    3.7657 
 C                     0.0036    2.3199    4.5665 
 C                     0.0048    2.0912    6.0782 
 H                    -0.8766    1.8137    1.9647 
 H                     0.8797    1.8136    1.9633 
 H                    -0.869     0.422     4.0262 
 H                     0.8753    0.4219    4.0248 
 H                     0.8738    2.9137    4.2933 
 H                    -0.8669    2.9137    4.2947 
 H                     0.8817    1.5286    6.3873 
 H                     0.0053    3.0317    6.6235 
 H                    -0.8715    1.5286    6.3887 
 
 Using perturbation frequencies:     .000000     .056954
                          Input orientation:                          
 ---------------------------------------------------------------------
 Center     Atomic     Atomic              Coordinates (Angstroms)
 Number     Number      Type              X           Y           Z
 ---------------------------------------------------------------------
    1         16             0         .000000     .000000     .000000
    2          8             0         .001200    -.000800    1.633200
    3          8             0       -1.211100     .704600    -.356500
    4          8             0        -.000100   -1.407200    -.293700
    5          8             0        1.210500     .704800    -.358300
    6          6             0         .001800    1.251700    2.263200
    7          6             0         .003000    1.016700    3.765700
    8          6             0         .003600    2.319900    4.566500
    9          6             0         .004800    2.091200    6.078200
   10          1             0        -.876600    1.813700    1.964700
   11          1             0         .879700    1.813600    1.963300
   12          1             0        -.869000     .422000    4.026200
   13          1             0         .875300     .421900    4.024800
   14          1             0         .873800    2.913700    4.293300
   15          1             0        -.866900    2.913700    4.294700
   16          1             0         .881700    1.528600    6.387300
   17          1             0         .005300    3.031700    6.623500
   18          1             0        -.871500    1.528600    6.388700
 ---------------------------------------------------------------------
                    Distance matrix (angstroms):
                    1          2          3          4          5
     1  S     .000000
     2  O    1.633201    .000000
     3  O    1.445793   2.434372    .000000
     4  O    1.437523   2.385562   2.435193    .000000
     5  O    1.445833   2.434410   2.421601   2.435214    .000000
     6  C    2.586277   1.402019   2.938243   3.688833   2.938081
     7  C    3.900536   2.362809   4.308594   4.728005   4.308447
     8  C    5.121999   3.740308   5.321712   6.124772   5.321542
     9  C    6.427881   4.912688   6.693761   7.269108   6.693605
    10  H    2.813891   2.042752   2.594217   4.030238   3.313906
    11  H    2.813817   2.042737   3.314030   4.030093   2.593972
    12  H    4.140475   2.581174   4.405105   4.771006   4.860878
    13  H    4.140431   2.581177   4.860944   4.770888   4.404992
    14  H    5.261711   4.041271   5.554059   6.361953   5.160425
    15  H    5.261712   4.041224   5.160645   6.361991   5.553849
    16  H    6.626584   5.071076   7.108982   7.350663   6.803666
    17  H    7.284366   5.839449   7.457575   8.218973   7.457379
    18  H    6.626584   5.071040   6.803824   7.350696   7.108824
                    6          7          8          9         10
     6  C     .000000
     7  C    1.520767    .000000
     8  C    2.538946   1.529579    .000000
     9  C    3.906276   2.549943   1.528902    .000000
    10  H    1.084681   2.156967   2.792911   4.216012    .000000
    11  H    1.084611   2.156919   2.792945   4.216031   1.756301
    12  H    2.134213   1.087158   2.157633   2.785760   2.487302
    13  H    2.134199   1.087119   2.157708   2.785818   3.041426
    14  H    2.764767   2.152966   1.088340   2.148845   3.113885
    15  H    2.764756   2.152946   1.088230   2.148776   2.576625
    16  H    4.226003   2.811928   2.170836   1.086745   4.767839
    17  H    4.709631   3.496749   2.176674   1.087149   4.895476
    18  H    4.226000   2.811925   2.170799   1.086660   4.433180
                   11         12         13         14         15
    11  H     .000000
    12  H    3.041391    .000000
    13  H    2.487294   1.744301    .000000
    14  H    2.576656   3.052419   2.506225    .000000
    15  H    3.113881   2.506126   3.052405   1.740701    .000000
    16  H    4.433171   3.140749   2.608876   2.510657   3.058607
    17  H    4.895488   3.784297   3.784336   2.489588   2.489572
    18  H    4.767818   2.608827   3.140719   3.058639   2.510649
                   16         17         18
    16  H     .000000
    17  H    1.755898    .000000
    18  H    1.753201   1.755910    .000000
 Symmetry turned off by external request.
 Stoichiometry    C4H9O4S(1-)
 Framework group  C1[X(C4H9O4S)]
 Deg. of freedom    48
 Full point group                 C1      NOp   1
 Rotational constants (GHZ):      4.2910325       .5440315       .5372919
 Standard basis: 6-311+G(d,p) (5D, 7F)
 Integral buffers will be    262144 words long.
 Raffenetti 1 integral format.
 Two-electron integral symmetry is turned off.
   260 basis functions,   410 primitive gaussians,   269 cartesian basis functions
    41 alpha electrons       41 beta electrons
       nuclear repulsion energy       599.0307572964 Hartrees.
 NAtoms=   18 NActive=   18 NUniq=   18 SFac= 1.00E+00 NAtFMM=   60 Big=F
 One-electron integrals computed using PRISM.
 NBasis=   260 RedAO= T  NBF=   260
 NBsUse=   260 1.00E-06 NBFU=   260
 Harris functional with IExCor=  205 diagonalized for initial guess.
 ExpMin= 4.05E-02 ExpMax= 9.34E+04 ExpMxC= 3.17E+03 IAcc=2 IRadAn=         4 AccDes= 0.00E+00
 HarFok:  IExCor= 205 AccDes= 0.00E+00 IRadAn=         4 IDoV=1
 ScaDFX=  1.000000  1.000000  1.000000  1.000000
 Requested convergence on RMS density matrix=1.00E-08 within 128 cycles.
 Requested convergence on MAX density matrix=1.00E-06.
 Requested convergence on             energy=1.00E-06.
 No special actions if energy rises.
 SCF Done:  E(RHF) =  -853.811404214     A.U. after   13 cycles
             Convg  =     .8623E-08             -V/T =  2.0001
             S**2   =    .0000
 Range of M.O.s used for correlation:     1   260
 NBasis=   260 NAE=    41 NBE=    41 NFC=     0 NFV=     0
 NROrb=    260 NOA=    41 NOB=    41 NVA=   219 NVB=   219

 **** Warning!!: The largest alpha MO coefficient is   .75157853E+02

          Differentiating once with respect to electric field.
                with respect to dipole field.
          Electric field/nuclear overlap derivatives assumed to be zero.
 Symmetry not used in FoFDir.
 MinBra= 0 MaxBra= 2 Meth= 1.
 IRaf=       0 NMat=  12 IRICut=      12 DoRegI=T DoRafI=T ISym2E= 0 JSym2E=0.
 Raff turned off since only   .04% of shell-pairs survive.
          There are   6 degrees of freedom in the 1st order CPHF.
 LinEq1:  Iter=  0 NonCon=   6 RMS=4.61E-02 Max=8.51E-01
 AX will form   6 AO Fock derivatives at one time.
 LinEq1:  Iter=  1 NonCon=   6 RMS=1.39E-02 Max=1.92E-01
 LinEq1:  Iter=  2 NonCon=   6 RMS=5.32E-03 Max=9.47E-02
 LinEq1:  Iter=  3 NonCon=   6 RMS=1.47E-03 Max=2.70E-02
 LinEq1:  Iter=  4 NonCon=   6 RMS=4.05E-04 Max=6.86E-03
 LinEq1:  Iter=  5 NonCon=   6 RMS=1.26E-04 Max=2.21E-03
 LinEq1:  Iter=  6 NonCon=   6 RMS=3.87E-05 Max=7.63E-04
 LinEq1:  Iter=  7 NonCon=   6 RMS=1.50E-05 Max=2.35E-04
 LinEq1:  Iter=  8 NonCon=   6 RMS=4.02E-06 Max=6.10E-05
 LinEq1:  Iter=  9 NonCon=   6 RMS=1.29E-06 Max=1.92E-05
 LinEq1:  Iter= 10 NonCon=   6 RMS=5.07E-07 Max=8.92E-06
 LinEq1:  Iter= 11 NonCon=   5 RMS=1.04E-07 Max=2.05E-06
 LinEq1:  Iter= 12 NonCon=   4 RMS=3.60E-08 Max=6.82E-07
 LinEq1:  Iter= 13 NonCon=   2 RMS=9.60E-09 Max=1.93E-07
 LinEq1:  Iter= 14 NonCon=   0 RMS=2.41E-09 Max=3.78E-08
 Linear equations converged to 1.000E-08 1.000E-07 after  14 iterations.
 Isotropic polarizability for W=     .000000       75.80 Bohr**3.
 Isotropic polarizability for W=     .056954       76.56 Bohr**3.
 End of Minotr Frequency-dependent properties on file   721 Mask=      11 NFrqRd=     2 NDeriv=     1 LenFil=      58:
 Frequencies=     .000000     .056954
 Property number 1 -- Alpha(-w,w) frequency  1     .000000:
               1            2            3
      1  .679633E+02  .644248E-02  .141960E-01
      2  .644248E-02  .736872E+02  .777628E+01
      3  .141960E-01  .777628E+01  .857585E+02
 Property number 1 -- Alpha(-w,w) frequency  2     .056954:
               1            2            3
      1  .685890E+02  .653849E-02  .144428E-01
      2  .653849E-02  .743947E+02  .788910E+01
      3  .144428E-01  .788910E+01  .866967E+02
 Property number 5 -- Beta(-w,w,0) frequency  1     .000000:
               1
      1  .641708E-01
      2 -.802840E+01
      3  .375083E-01
      4  .255046E+02
      5  .242423E-01
      6 -.600940E-03
      7 -.802840E+01
      8  .375083E-01
      9  .615173E+02
     10  .242423E-01
     11  .496028E+02
     12  .248986E+02
     13  .255046E+02
     14  .242423E-01
     15  .496028E+02
     16 -.600940E-03
     17  .248986E+02
     18  .482568E+02
 Property number 5 -- Beta(-w,w,0) frequency  2     .056954:
               1
      1  .668563E-01
      2 -.837806E+01
      3  .387734E-01
      4  .265727E+02
      5  .249966E-01
      6 -.124899E-03
      7 -.834509E+01
      8  .389350E-01
      9  .636598E+02
     10  .249582E-01
     11  .515342E+02
     12  .256686E+02
     13  .264665E+02
     14  .249673E-01
     15  .512828E+02
     16 -.643587E-04
     17  .256594E+02
     18  .508790E+02

 **********************************************************************

            Population analysis using the SCF density.

 **********************************************************************

 Alpha  occ. eigenvalues --  -92.03373 -20.42490 -20.34846 -20.34830 -20.34827
 Alpha  occ. eigenvalues --  -11.14485 -11.13236 -11.12916 -11.11044  -9.00284
 Alpha  occ. eigenvalues --   -6.68898  -6.68854  -6.68832  -1.34272  -1.21482
 Alpha  occ. eigenvalues --   -1.15555  -1.15204   -.97707   -.88056   -.76725
 Alpha  occ. eigenvalues --    -.69949   -.64511   -.55962   -.55150   -.51604
 Alpha  occ. eigenvalues --    -.51334   -.48756   -.48032   -.45599   -.43010
 Alpha  occ. eigenvalues --    -.41377   -.39310   -.38012   -.37490   -.34327
 Alpha  occ. eigenvalues --    -.34194   -.32873   -.31194   -.28782   -.27615
 Alpha  occ. eigenvalues --    -.24708
 Alpha virt. eigenvalues --     .14224    .16309    .17667    .18398    .21025
 Alpha virt. eigenvalues --     .21178    .22229    .22303    .22851    .23802
 Alpha virt. eigenvalues --     .25120    .26096    .26982    .27184    .29190
 Alpha virt. eigenvalues --     .29589    .33076    .34053    .35635    .36451
 Alpha virt. eigenvalues --     .38751    .39317    .40629    .41327    .41752
 Alpha virt. eigenvalues --     .42448    .44637    .44649    .45776    .46080
 Alpha virt. eigenvalues --     .46671    .47435    .48429    .50709    .51371
 Alpha virt. eigenvalues --     .51702    .51945    .52016    .53039    .53657
 Alpha virt. eigenvalues --     .53863    .54585    .56223    .57226    .57839
 Alpha virt. eigenvalues --     .60283    .60472    .61470    .62813    .64021
 Alpha virt. eigenvalues --     .64264    .64881    .66382    .68883    .70474
 Alpha virt. eigenvalues --     .72416    .73074    .74216    .75028    .77280
 Alpha virt. eigenvalues --     .78757    .80484    .87891    .89102    .92124
 Alpha virt. eigenvalues --     .93551    .95932    .97855    .98065    .99235
 Alpha virt. eigenvalues --     .99844   1.00905   1.03659   1.03695   1.06124
 Alpha virt. eigenvalues --    1.06992   1.08914   1.13769   1.18342   1.20363
 Alpha virt. eigenvalues --    1.25588   1.26977   1.28418   1.31636   1.34171
 Alpha virt. eigenvalues --    1.39552   1.41092   1.44156   1.44514   1.49644
 Alpha virt. eigenvalues --    1.52635   1.54180   1.56780   1.57045   1.58749
 Alpha virt. eigenvalues --    1.59577   1.60034   1.60381   1.61442   1.63049
 Alpha virt. eigenvalues --    1.65357   1.70070   1.70436   1.72243   1.76962
 Alpha virt. eigenvalues --    1.80853   1.81381   1.86427   1.88133   1.90599
 Alpha virt. eigenvalues --    1.93116   1.94623   1.96582   1.98593   1.98627
 Alpha virt. eigenvalues --    2.01995   2.02275   2.05622   2.07179   2.08256
 Alpha virt. eigenvalues --    2.10051   2.11183   2.12899   2.14143   2.16528
 Alpha virt. eigenvalues --    2.19244   2.26582   2.27102   2.27827   2.30044
 Alpha virt. eigenvalues --    2.31576   2.36860   2.45455   2.47190   2.47393
 Alpha virt. eigenvalues --    2.48890   2.57719   2.61354   2.62292   2.65954
 Alpha virt. eigenvalues --    2.73001   2.79189   2.79589   2.82518   2.89307
 Alpha virt. eigenvalues --    2.89860   2.94153   2.98716   2.99457   3.01465
 Alpha virt. eigenvalues --    3.01833   3.01884   3.07480   3.08167   3.11979
 Alpha virt. eigenvalues --    3.15645   3.16919   3.18787   3.20066   3.29708
 Alpha virt. eigenvalues --    3.32538   3.33857   3.35296   3.38248   3.38740
 Alpha virt. eigenvalues --    3.39091   3.40416   3.42296   3.43013   3.45292
 Alpha virt. eigenvalues --    3.48135   3.52046   3.57005   3.61909   3.62634
 Alpha virt. eigenvalues --    3.70187   3.72992   3.73103   3.78766   3.81048
 Alpha virt. eigenvalues --    3.84965   3.97539   4.12188   4.23295   4.23889
 Alpha virt. eigenvalues --    4.29268   4.31193   4.32449   4.37480   4.40206
 Alpha virt. eigenvalues --    4.62128   4.64489   4.77354   4.89894   5.72868
 Alpha virt. eigenvalues --    5.76456   5.77302   5.78888   5.79607   5.80060
 Alpha virt. eigenvalues --    5.81439   5.84675   5.93304   6.08687   6.11848
 Alpha virt. eigenvalues --    6.28948   9.02083  18.56619  18.69326  18.73698
 Alpha virt. eigenvalues --   25.14342  25.17698  25.20305  25.24053  51.77414
 Alpha virt. eigenvalues --   51.77953  51.78254  51.84754 192.78478
          Condensed to atoms (all electrons):
              1          2          3          4          5          6
     1  S   14.228333   -.134536    .357590    .306903    .357522    .037477
     2  O    -.134536   8.518731    .005840    .008881    .005801    .135857
     3  O     .357590    .005840   8.619208   -.216494   -.174084   -.007982
     4  O     .306903    .008881   -.216494   8.565544   -.216499   -.006307
     5  O     .357522    .005801   -.174084   -.216499   8.619312   -.007896
     6  C     .037477    .135857   -.007982   -.006307   -.007896   7.068962
     7  C    -.140386   -.153306   -.010833    .038432   -.010851  -1.715741
     8  C    -.051524    .053205    .001417    .000180    .001419    .602759
     9  C    -.013079   -.002247   -.001170    .001181   -.001170   -.547778
    10  H     .016758   -.044543   -.014128   -.000380    .009780    .460289
    11  H     .016775   -.044548    .009776   -.000375   -.014146    .460282
    12  H     .005196   -.001529    .000737   -.000088   -.000440   -.065303
    13  H     .005197   -.001521   -.000439   -.000089    .000737   -.065229
    14  H     .000451   -.000774    .000069   -.000003   -.000217   -.001503
    15  H     .000450   -.000773   -.000217   -.000003    .000069   -.001502
    16  H     .000008   -.000119    .000000   -.000001    .000001    .005066
    17  H     .000008    .000134    .000000    .000000    .000000    .007937
    18  H     .000008   -.000119    .000001   -.000001    .000000    .005069
              7          8          9         10         11         12
     1  S    -.140386   -.051524   -.013079    .016758    .016775    .005196
     2  O    -.153306    .053205   -.002247   -.044543   -.044548   -.001529
     3  O    -.010833    .001417   -.001170   -.014128    .009776    .000737
     4  O     .038432    .000180    .001181   -.000380   -.000375   -.000088
     5  O    -.010851    .001419   -.001170    .009780   -.014146   -.000440
     6  C   -1.715741    .602759   -.547778    .460289    .460282   -.065303
     7  C    7.867300  -1.059016    .588036   -.053979   -.053967    .493149
     8  C   -1.059016   6.402927   -.540379   -.028373   -.028373   -.078117
     9  C     .588036   -.540379   6.021320   -.000837   -.000839   -.000205
    10  H    -.053979   -.028373   -.000837    .559181   -.051447   -.007791
    11  H    -.053967   -.028373   -.000839   -.051447    .559143    .006571
    12  H     .493149   -.078117   -.000205   -.007791    .006571    .561474
    13  H     .493064   -.078077   -.000219    .006570   -.007791   -.038943
    14  H    -.066285    .474649   -.062001   -.000584    .003664    .007460
    15  H    -.066223    .474576   -.061979    .003663   -.000584   -.006933
    16  H    -.039481    .001486    .405463   -.000036    .000033   -.000141
    17  H     .026046   -.056287    .400724   -.000013   -.000013   -.000182
    18  H    -.039489    .001534    .405417    .000033   -.000036    .003356
             13         14         15         16         17         18
     1  S     .005197    .000451    .000450    .000008    .000008    .000008
     2  O    -.001521   -.000774   -.000773   -.000119    .000134   -.000119
     3  O    -.000439    .000069   -.000217    .000000    .000000    .000001
     4  O    -.000089   -.000003   -.000003   -.000001    .000000   -.000001
     5  O     .000737   -.000217    .000069    .000001    .000000    .000000
     6  C    -.065229   -.001503   -.001502    .005066    .007937    .005069
     7  C     .493064   -.066285   -.066223   -.039481    .026046   -.039489
     8  C    -.078077    .474649    .474576    .001486   -.056287    .001534
     9  C    -.000219   -.062001   -.061979    .405463    .400724    .405417
    10  H     .006570   -.000584    .003663   -.000036   -.000013    .000033
    11  H    -.007791    .003664   -.000584    .000033   -.000013   -.000036
    12  H    -.038943    .007460   -.006933   -.000141   -.000182    .003356
    13  H     .561440   -.006930    .007457    .003354   -.000181   -.000141
    14  H    -.006930    .584381   -.043558   -.007343   -.004916    .007364
    15  H     .007457   -.043558    .584353    .007364   -.004916   -.007342
    16  H     .003354   -.007343    .007364    .574393   -.027948   -.036856
    17  H    -.000181   -.004916   -.004916   -.027948    .582143   -.027938
    18  H    -.000141    .007364   -.007342   -.036856   -.027938    .574373
 Mulliken atomic charges:
              1
     1  S    1.006849
     2  O    -.344435
     3  O    -.569292
     4  O    -.480881
     5  O    -.569339
     6  C    -.364456
     7  C    -.096471
     8  C    -.094009
     9  C    -.590237
    10  H     .145836
    11  H     .145873
    12  H     .121729
    13  H     .121740
    14  H     .116075
    15  H     .116095
    16  H     .114755
    17  H     .105402
    18  H     .114766
 Sum of Mulliken charges=  -1.00000
 Atomic charges with hydrogens summed into heavy atoms:
              1
     1  S    1.006849
     2  O    -.344435
     3  O    -.569292
     4  O    -.480881
     5  O    -.569339
     6  C    -.072747
     7  C     .146998
     8  C     .138161
     9  C    -.255314
    10  H     .000000
    11  H     .000000
    12  H     .000000
    13  H     .000000
    14  H     .000000
    15  H     .000000
    16  H     .000000
    17  H     .000000
    18  H     .000000
 Sum of Mulliken charges=  -1.00000
 Electronic spatial extent (au):  <R**2>=  3210.2012
 Charge=    -1.0000 electrons
 Dipole moment (field-independent basis, Debye):
    X=      .0009    Y=     1.0591    Z=     1.4720  Tot=     1.8134
 Quadrupole moment (field-independent basis, Debye-Ang):
   XX=   -71.7245   YY=   -72.0626   ZZ=   -70.0489
   XY=      .0006   XZ=      .0009   YZ=     1.4025
 Traceless Quadrupole moment (field-independent basis, Debye-Ang):
   XX=     -.4459   YY=     -.7839   ZZ=     1.2298
   XY=      .0006   XZ=      .0009   YZ=     1.4025
 Octapole moment (field-independent basis, Debye-Ang**2):
  XXX=     -.2738  YYY=  -137.2579  ZZZ=  -409.5134  XYY=     -.0991
  XXY=   -53.6054  XXZ=  -114.9346  XZZ=     -.1445  YZZ=   -57.1347
  YYZ=  -121.2548  XYZ=     -.0045
 Hexadecapole moment (field-independent basis, Debye-Ang**3):
 XXXX=  -214.3902 YYYY=  -760.5977 ZZZZ= -3895.2913 XXXY=     -.5061
 XXXZ=    -1.2996 YYYX=     -.5251 YYYZ=  -657.6249 ZZZX=    -1.6371
 ZZZY=  -741.7994 XXYY=  -159.4538 XXZZ=  -617.1588 YYZZ=  -748.8726
 XXYZ=  -211.8330 YYXZ=     -.4702 ZZXY=     -.2588
 N-N= 5.990307572964E+02 E-N=-3.232171560888E+03  KE= 8.537212809630E+02
  Exact polarizability:  67.963    .006  73.687    .014   7.776  85.759
 Approx polarizability:  65.917    .001  67.535   -.002    .624  62.875
 AllDun Frequency-dependent properties on file 20721 Mask=      11 NFrqRd=     2 NDeriv=     1 LenFil=      58:
 Frequencies=     .000000     .056954
 Property number 1 -- Alpha(-w,w) frequency  1     .000000:
               1            2            3
      1  .679633E+02  .644248E-02  .141960E-01
      2  .644248E-02  .736872E+02  .777628E+01
      3  .141960E-01  .777628E+01  .857585E+02
 Property number 1 -- Alpha(-w,w) frequency  2     .056954:
               1            2            3
      1  .685890E+02  .653849E-02  .144428E-01
      2  .653849E-02  .743947E+02  .788910E+01
      3  .144428E-01  .788910E+01  .866967E+02
 Property number 5 -- Beta(-w,w,0) frequency  1     .000000:
               1
      1  .641708E-01
      2 -.802840E+01
      3  .375083E-01
      4  .255046E+02
      5  .242423E-01
      6 -.600940E-03
      7 -.802840E+01
      8  .375083E-01
      9  .615173E+02
     10  .242423E-01
     11  .496028E+02
     12  .248986E+02
     13  .255046E+02
     14  .242423E-01
     15  .496028E+02
     16 -.600940E-03
     17  .248986E+02
     18  .482568E+02
 Property number 5 -- Beta(-w,w,0) frequency  2     .056954:
               1
      1  .668563E-01
      2 -.837806E+01
      3  .387734E-01
      4  .265727E+02
      5  .249966E-01
      6 -.124899E-03
      7 -.834509E+01
      8  .389350E-01
      9  .636598E+02
     10  .249582E-01
     11  .515342E+02
     12  .256686E+02
     13  .264665E+02
     14  .249673E-01
     15  .512828E+02
     16 -.643587E-04
     17  .256594E+02
     18  .508790E+02
 1\1\GINC-D131-138\SP\RHF\6-311+G(d,p)\C4H9O4S1(1-)\DENNIS\10-Jan-2005\
 0\\#RHF/6-311+G(D,P) POLAR CPHF=RDFREQ NOSYMMETRY\\step 2\\-1,1\S,0,0.
 ,0.,0.\O,0,0.0012,-0.0008,1.6332\O,0,-1.2111,0.7046,-0.3565\O,0,-0.000
 1,-1.4072,-0.2937\O,0,1.2105,0.7048,-0.3583\C,0,0.0018,1.2517,2.2632\C
 ,0,0.003,1.0167,3.7657\C,0,0.0036,2.3199,4.5665\C,0,0.0048,2.0912,6.07
 82\H,0,-0.8766,1.8137,1.9647\H,0,0.8797,1.8136,1.9633\H,0,-0.869,0.422
 ,4.0262\H,0,0.8753,0.4219,4.0248\H,0,0.8738,2.9137,4.2933\H,0,-0.8669,
 2.9137,4.2947\H,0,0.8817,1.5286,6.3873\H,0,0.0053,3.0317,6.6235\H,0,-0
 .8715,1.5286,6.3887\\Version=MacOSX-G03RevB.04\HF=-853.8114042\RMSD=8.
 623e-09\Dipole=0.0030426,1.7342523,3.9621064\Polar=67.9633045,0.006442
 5,73.6871917,0.014196,7.7762825,85.758526\HyperPolar=0.0641708,-8.0283
 967,0.0375083,61.5173463,25.5045593,0.0242423,49.6028209,-0.0006009,24
 .8986243,48.2568373\PG=C01 [X(C4H9O4S1)]\\@


 MORNING PEOPLE ARE USUALLY ADMIRED AS EARLY BIRDS.
 RECALL BEN FRANKLIN'S APHORISM THAT THE EARLY BIRD GETS THE WORM.
 I IDENTIFY WITH THE WORM. --  CRAIG JAGGER, MINNEAPOLIS, KS.
 Job cpu time:  0 days  1 hours 26 minutes 50.0 seconds.
 File lengths (MBytes):  RWF=     83 Int=      0 D2E=      0 Chk=     10 Scr=      1
 Normal termination of Gaussian 03 at Mon Jan 10 23:53:55 2005.
