 Entering Gaussian System, Link 0=g03
 Initial command:
 /sw/gaussian/g03/l1.exe /sw/gaussian/scratch/Gau-16118.inp -scrdir=/sw/gaussian/scratch/
 Entering Link 1 = /sw/gaussian/g03/l1.exe PID=     16119.
  
 Copyright (c) 1988,1990,1992,1993,1995,1998,2003, Gaussian, Inc.
                  All Rights Reserved.
  
 This is the Gaussian(R) 03 program.  It is based on the
 the Gaussian(R) 98 system (copyright 1998, Gaussian, Inc.),
 the Gaussian(R) 94 system (copyright 1995, Gaussian, Inc.),
 the Gaussian 92(TM) system (copyright 1992, Gaussian, Inc.),
 the Gaussian 90(TM) system (copyright 1990, Gaussian, Inc.),
 the Gaussian 88(TM) system (copyright 1988, Gaussian, Inc.),
 the Gaussian 86(TM) system (copyright 1986, Carnegie Mellon
 University), and the Gaussian 82(TM) system (copyright 1983,
 Carnegie Mellon University). Gaussian is a federally registered
 trademark of Gaussian, Inc.
  
 This software contains proprietary and confidential information,
 including trade secrets, belonging to Gaussian, Inc.
  
 This software is provided under written license and may be
 used, copied, transmitted, or stored only in accord with that
 written license.
  
 The following legend is applicable only to US Government
 contracts under DFARS:
  
                    RESTRICTED RIGHTS LEGEND
  
 Use, duplication or disclosure by the US Government is subject
 to restrictions as set forth in subparagraph (c)(1)(ii) of the
 Rights in Technical Data and Computer Software clause at DFARS
 252.227-7013.
  
 Gaussian, Inc.
 Carnegie Office Park, Building 6, Pittsburgh, PA 15106 USA
  
 The following legend is applicable only to US Government
 contracts under FAR:
  
                    RESTRICTED RIGHTS LEGEND
  
 Use, reproduction and disclosure by the US Government is subject
 to restrictions as set forth in subparagraph (c) of the
 Commercial Computer Software - Restricted Rights clause at FAR
 52.227-19.
  
 Gaussian, Inc.
 Carnegie Office Park, Building 6, Pittsburgh, PA 15106 USA
  
  
 ---------------------------------------------------------------
 Warning -- This program may not be used in any manner that
 competes with the business of Gaussian, Inc. or will provide
 assistance to any competitor of Gaussian, Inc.  The licensee
 of this program is prohibited from giving any competitor of
 Gaussian, Inc. access to this program.  By using this program,
 the user acknowledges that Gaussian, Inc. is engaged in the
 business of creating and licensing software in the field of
 computational chemistry and represents and warrants to the
 licensee that it is not a competitor of Gaussian, Inc. and that
 it will not use this program in any manner prohibited above.
 ---------------------------------------------------------------
  

 Cite this work as:
 Gaussian 03, Revision B.04,
 M. J. Frisch, G. W. Trucks, H. B. Schlegel, G. E. Scuseria, 
 M. A. Robb, J. R. Cheeseman, J. A. Montgomery, Jr., T. Vreven, 
 K. N. Kudin, J. C. Burant, J. M. Millam, S. S. Iyengar, J. Tomasi, 
 V. Barone, B. Mennucci, M. Cossi, G. Scalmani, N. Rega, 
 G. A. Petersson, H. Nakatsuji, M. Hada, M. Ehara, K. Toyota, 
 R. Fukuda, J. Hasegawa, M. Ishida, T. Nakajima, Y. Honda, O. Kitao, 
 H. Nakai, M. Klene, X. Li, J. E. Knox, H. P. Hratchian, J. B. Cross, 
 C. Adamo, J. Jaramillo, R. Gomperts, R. E. Stratmann, O. Yazyev, 
 A. J. Austin, R. Cammi, C. Pomelli, J. W. Ochterski, P. Y. Ayala, 
 K. Morokuma, G. A. Voth, P. Salvador, J. J. Dannenberg, 
 V. G. Zakrzewski, S. Dapprich, A. D. Daniels, M. C. Strain, 
 O. Farkas, D. K. Malick, A. D. Rabuck, K. Raghavachari, 
 J. B. Foresman, J. V. Ortiz, Q. Cui, A. G. Baboul, S. Clifford, 
 J. Cioslowski, B. B. Stefanov, G. Liu, A. Liashenko, P. Piskorz, 
 I. Komaromi, R. L. Martin, D. J. Fox, T. Keith, M. A. Al-Laham, 
 C. Y. Peng, A. Nanayakkara, M. Challacombe, P. M. W. Gill, 
 B. Johnson, W. Chen, M. W. Wong, C. Gonzalez, and J. A. Pople, 
 Gaussian, Inc., Pittsburgh PA, 2003.
 
 ******************************************
 Gaussian 03:  MacOSX-G03RevB.04 2-Jun-2003
                10-Jan-2005 
 ******************************************
 %chk=testhalf1
 ----------------------------------------------
 #RHF/6-311+G(d,p) Polar CPHF=RdFreq NoSymmetry
 ----------------------------------------------
 1/38=1,83=1/1;
 2/15=1,17=6,18=5,40=1/2;
 3/5=4,6=6,7=111,11=1,16=1,25=1,30=1/1,2,3;
 4/7=1/1;
 5/5=2,38=5/2;
 8/6=4,10=90,11=11/1;
 10/6=1,13=10,31=1,72=3/2;
 6/7=2,8=2,9=2,10=2,28=1/1;
 99/5=1,9=1/99;
 ------
 step 1
 ------
 Symbolic Z-matrix:
 Charge = -1 Multiplicity = 1
 S                     0.       -0.0025    0.0375 
 O                     0.0012   -0.0283    1.6132 
 O                    -1.2886    0.7471   -0.384 
 O                    -0.0001   -1.4872   -0.3112 
 O                     1.288     0.7498   -0.3858 
 C                     0.0018    1.2892    2.2732 
 C                     0.003     1.0367    3.7882 
 C                     0.0036    2.3049    4.5215 
 C                     0.0048    2.0787    6.1082 
 H                    -0.8791    1.8187    1.9422 
 H                     0.8822    1.8186    1.9408 
 H                    -0.8715    0.4595    4.0687 
 H                     0.8778    0.4594    4.0673 
 H                     0.8763    2.8787    4.2083 
 H                    -0.8694    2.8787    4.2097 
 H                     0.8817    1.5236    6.4373 
 H                     0.0053    3.0267    6.641 
 H                    -0.8715    1.5236    6.4387 
 
 Using perturbation frequencies:     .000000     .056954
                          Input orientation:                          
 ---------------------------------------------------------------------
 Center     Atomic     Atomic              Coordinates (Angstroms)
 Number     Number      Type              X           Y           Z
 ---------------------------------------------------------------------
    1         16             0         .000000    -.002500     .037500
    2          8             0         .001200    -.028300    1.613200
    3          8             0       -1.288600     .747100    -.384000
    4          8             0        -.000100   -1.487200    -.311200
    5          8             0        1.288000     .749800    -.385800
    6          6             0         .001800    1.289200    2.273200
    7          6             0         .003000    1.036700    3.788200
    8          6             0         .003600    2.304900    4.521500
    9          6             0         .004800    2.078700    6.108200
   10          1             0        -.879100    1.818700    1.942200
   11          1             0         .882200    1.818600    1.940800
   12          1             0        -.871500     .459500    4.068700
   13          1             0         .877800     .459400    4.067300
   14          1             0         .876300    2.878700    4.208300
   15          1             0        -.869400    2.878700    4.209700
   16          1             0         .881700    1.523600    6.437300
   17          1             0         .005300    3.026700    6.641000
   18          1             0        -.871500    1.523600    6.438700
 ---------------------------------------------------------------------
                    Distance matrix (angstroms):
                    1          2          3          4          5
     1  S     .000000
     2  O    1.575912    .000000
     3  O    1.549210   2.500727    .000000
     4  O    1.525099   2.414893   2.580238    .000000
     5  O    1.550510   2.501459   2.576602   2.582428    .000000
     6  C    2.582024   1.473569   3.003284   3.793089   3.002590
     7  C    3.892004   2.421746   4.377140   4.814059   4.376735
     8  C    5.042853   3.728544   5.306642   6.142884   5.305621
     9  C    6.417540   4.964321   6.752385   7.343321   6.751638
    10  H    2.778033   2.072336   2.593689   4.096270   3.355362
    11  H    2.777991   2.072323   3.356364   4.096129   2.592311
    12  H    4.150124   2.651233   4.481431   4.871602   4.958859
    13  H    4.150081   2.651205   4.958844   4.871470   4.481372
    14  H    5.144394   3.993869   5.506335   6.344686   5.080105
    15  H    5.144358   3.993796   5.081489   6.344707   5.505017
    16  H    6.638058   5.143502   7.200228   7.442092   6.878847
    17  H    7.265142   5.883181   7.498092   8.289053   7.497033
    18  H    6.638061   5.143486   6.879401   7.442137   7.199723
                    6          7          8          9         10
     6  C     .000000
     7  C    1.535898    .000000
     8  C    2.467084   1.464944    .000000
     9  C    3.915424   2.543259   1.602743    .000000
    10  H    1.079776   2.190283   2.769176   4.266666    .000000
    11  H    1.079749   2.190262   2.769194   4.266697   1.761301
    12  H    2.162146   1.084707   2.091968   2.747594   2.523784
    13  H    2.162114   1.084641   2.091983   2.747642   3.074157
    14  H    2.652522   2.081370   1.090388   2.238109   3.056180
    15  H    2.652458   2.081276   1.090227   2.237974   2.503048
    16  H    4.262499   2.833181   2.247616   1.088759   4.836675
    17  H    4.700702   3.478300   2.239035   1.087465   4.931546
    18  H    4.262509   2.833191   2.247640   1.088700   4.506180
                   11         12         13         14         15
    11  H     .000000
    12  H    3.074179    .000000
    13  H    2.523776   1.749301    .000000
    14  H    2.503079   2.987779   2.423406    .000000
    15  H    3.056112   2.423306   2.987641   1.745701    .000000
    16  H    4.506167   3.133095   2.597968   2.608595   3.140836
    17  H    4.931566   3.738452   3.738478   2.588160   2.588093
    18  H    4.836692   2.597924   3.133067   3.140985   2.608590
                   16         17         18
    16  H     .000000
    17  H    1.751822    .000000
    18  H    1.753201   1.751860    .000000
 Symmetry turned off by external request.
 Stoichiometry    C4H9O4S(1-)
 Framework group  C1[X(C4H9O4S)]
 Deg. of freedom    48
 Full point group                 C1      NOp   1
 Rotational constants (GHZ):      3.8853811       .5390925       .5325569
 Standard basis: 6-311+G(d,p) (5D, 7F)
 Integral buffers will be    262144 words long.
 Raffenetti 1 integral format.
 Two-electron integral symmetry is turned off.
   260 basis functions,   410 primitive gaussians,   269 cartesian basis functions
    41 alpha electrons       41 beta electrons
       nuclear repulsion energy       586.1923156057 Hartrees.
 NAtoms=   18 NActive=   18 NUniq=   18 SFac= 1.00E+00 NAtFMM=   60 Big=F
 One-electron integrals computed using PRISM.
 NBasis=   260 RedAO= T  NBF=   260
 NBsUse=   260 1.00E-06 NBFU=   260
 Harris functional with IExCor=  205 diagonalized for initial guess.
 ExpMin= 4.05E-02 ExpMax= 9.34E+04 ExpMxC= 3.17E+03 IAcc=2 IRadAn=         4 AccDes= 0.00E+00
 HarFok:  IExCor= 205 AccDes= 0.00E+00 IRadAn=         4 IDoV=1
 ScaDFX=  1.000000  1.000000  1.000000  1.000000
 Requested convergence on RMS density matrix=1.00E-08 within 128 cycles.
 Requested convergence on MAX density matrix=1.00E-06.
 Requested convergence on             energy=1.00E-06.
 No special actions if energy rises.
 SCF Done:  E(RHF) =  -853.771100374     A.U. after   15 cycles
             Convg  =     .3895E-08             -V/T =  2.0010
             S**2   =    .0000
 Range of M.O.s used for correlation:     1   260
 NBasis=   260 NAE=    41 NBE=    41 NFC=     0 NFV=     0
 NROrb=    260 NOA=    41 NOB=    41 NVA=   219 NVB=   219

 **** Warning!!: The largest alpha MO coefficient is   .73037182E+02

          Differentiating once with respect to electric field.
                with respect to dipole field.
          Electric field/nuclear overlap derivatives assumed to be zero.
 Symmetry not used in FoFDir.
 MinBra= 0 MaxBra= 2 Meth= 1.
 IRaf=       0 NMat=  12 IRICut=      12 DoRegI=T DoRafI=T ISym2E= 0 JSym2E=0.
 Raff turned off since only   .04% of shell-pairs survive.
          There are   6 degrees of freedom in the 1st order CPHF.
 LinEq1:  Iter=  0 NonCon=   6 RMS=4.79E-02 Max=8.41E-01
 AX will form   6 AO Fock derivatives at one time.
 LinEq1:  Iter=  1 NonCon=   6 RMS=1.56E-02 Max=2.55E-01
 LinEq1:  Iter=  2 NonCon=   6 RMS=6.36E-03 Max=1.39E-01
 LinEq1:  Iter=  3 NonCon=   6 RMS=1.85E-03 Max=3.60E-02
 LinEq1:  Iter=  4 NonCon=   6 RMS=5.63E-04 Max=1.10E-02
 LinEq1:  Iter=  5 NonCon=   6 RMS=1.99E-04 Max=3.67E-03
 LinEq1:  Iter=  6 NonCon=   6 RMS=7.22E-05 Max=1.31E-03
 LinEq1:  Iter=  7 NonCon=   6 RMS=2.69E-05 Max=6.19E-04
 LinEq1:  Iter=  8 NonCon=   6 RMS=7.95E-06 Max=1.32E-04
 LinEq1:  Iter=  9 NonCon=   6 RMS=3.54E-06 Max=5.47E-05
 LinEq1:  Iter= 10 NonCon=   6 RMS=1.20E-06 Max=1.75E-05
 LinEq1:  Iter= 11 NonCon=   6 RMS=3.05E-07 Max=4.46E-06
 LinEq1:  Iter= 12 NonCon=   6 RMS=1.01E-07 Max=1.35E-06
 LinEq1:  Iter= 13 NonCon=   5 RMS=2.95E-08 Max=4.53E-07
 LinEq1:  Iter= 14 NonCon=   2 RMS=9.15E-09 Max=1.26E-07
 LinEq1:  Iter= 15 NonCon=   0 RMS=4.80E-09 Max=7.07E-08
 Linear equations converged to 1.000E-08 1.000E-07 after  15 iterations.
 Isotropic polarizability for W=     .000000       79.45 Bohr**3.
 Isotropic polarizability for W=     .056954       80.30 Bohr**3.
 End of Minotr Frequency-dependent properties on file   721 Mask=      11 NFrqRd=     2 NDeriv=     1 LenFil=      58:
 Frequencies=     .000000     .056954
 Property number 1 -- Alpha(-w,w) frequency  1     .000000:
               1            2            3
      1  .715890E+02  .248456E-01  .102146E-01
      2  .248456E-01  .768992E+02  .783143E+01
      3  .102146E-01  .783143E+01  .898644E+02
 Property number 1 -- Alpha(-w,w) frequency  2     .056954:
               1            2            3
      1  .722984E+02  .252782E-01  .103460E-01
      2  .252782E-01  .776826E+02  .795845E+01
      3  .103460E-01  .795845E+01  .909150E+02
 Property number 5 -- Beta(-w,w,0) frequency  1     .000000:
               1
      1  .189510E+00
      2 -.911228E+01
      3  .417100E-01
      4  .257937E+02
      5  .304226E-01
      6  .456712E-01
      7 -.911228E+01
      8  .417100E-01
      9  .647359E+02
     10  .304226E-01
     11  .525909E+02
     12  .367473E+02
     13  .257937E+02
     14  .304226E-01
     15  .525909E+02
     16  .456712E-01
     17  .367473E+02
     18  .745736E+02
 Property number 5 -- Beta(-w,w,0) frequency  2     .056954:
               1
      1  .198336E+00
      2 -.961611E+01
      3  .428285E-01
      4  .268414E+02
      5  .315672E-01
      6  .488555E-01
      7 -.959882E+01
      8  .430458E-01
      9  .669269E+02
     10  .317401E-01
     11  .545599E+02
     12  .380953E+02
     13  .267328E+02
     14  .317075E-01
     15  .542459E+02
     16  .488778E-01
     17  .380123E+02
     18  .784290E+02

 **********************************************************************

            Population analysis using the SCF density.

 **********************************************************************

 Alpha  occ. eigenvalues --  -92.05078 -20.45445 -20.35714 -20.35712 -20.35604
 Alpha  occ. eigenvalues --  -11.16868 -11.14542 -11.14030 -11.12052  -9.01693
 Alpha  occ. eigenvalues --   -6.70332  -6.70164  -6.70136  -1.32218  -1.19084
 Alpha  occ. eigenvalues --   -1.11293  -1.10579   -.99343   -.88513   -.79062
 Alpha  occ. eigenvalues --    -.71013   -.66484   -.57380   -.54268   -.52217
 Alpha  occ. eigenvalues --    -.51979   -.48673   -.47165   -.45099   -.43784
 Alpha  occ. eigenvalues --    -.41183   -.40359   -.38714   -.37603   -.34881
 Alpha  occ. eigenvalues --    -.31911   -.31293   -.31217   -.27405   -.26941
 Alpha  occ. eigenvalues --    -.24487
 Alpha virt. eigenvalues --     .13831    .15928    .17295    .17891    .20569
 Alpha virt. eigenvalues --     .20705    .21870    .21882    .22443    .24365
 Alpha virt. eigenvalues --     .25155    .26295    .26738    .27040    .28911
 Alpha virt. eigenvalues --     .29452    .32872    .33795    .35054    .35795
 Alpha virt. eigenvalues --     .38223    .38702    .39567    .40074    .40967
 Alpha virt. eigenvalues --     .41618    .43156    .43308    .43817    .44648
 Alpha virt. eigenvalues --     .45965    .46442    .47883    .49005    .50335
 Alpha virt. eigenvalues --     .50881    .51223    .51262    .52657    .52974
 Alpha virt. eigenvalues --     .53281    .54290    .54653    .56444    .56987
 Alpha virt. eigenvalues --     .57290    .57807    .58914    .61499    .62969
 Alpha virt. eigenvalues --     .63716    .63816    .64802    .66916    .69642
 Alpha virt. eigenvalues --     .70318    .71484    .71676    .73171    .75839
 Alpha virt. eigenvalues --     .78057    .79602    .86333    .88708    .88838
 Alpha virt. eigenvalues --     .92268    .95211    .96387    .96469    .98004
 Alpha virt. eigenvalues --     .99332    .99479   1.02268   1.02704   1.04632
 Alpha virt. eigenvalues --    1.06060   1.08606   1.09856   1.16068   1.19613
 Alpha virt. eigenvalues --    1.25831   1.26312   1.28791   1.31363   1.32388
 Alpha virt. eigenvalues --    1.38570   1.39335   1.42073   1.43221   1.49956
 Alpha virt. eigenvalues --    1.51572   1.53438   1.54893   1.56518   1.57110
 Alpha virt. eigenvalues --    1.57201   1.58226   1.58474   1.62443   1.62673
 Alpha virt. eigenvalues --    1.63304   1.64610   1.65563   1.68732   1.73396
 Alpha virt. eigenvalues --    1.78997   1.80898   1.84544   1.86710   1.90400
 Alpha virt. eigenvalues --    1.92282   1.92555   1.92701   1.96510   1.99628
 Alpha virt. eigenvalues --    2.01021   2.02426   2.03978   2.04718   2.06351
 Alpha virt. eigenvalues --    2.07503   2.10184   2.12478   2.12677   2.14939
 Alpha virt. eigenvalues --    2.17775   2.25901   2.27462   2.27495   2.28431
 Alpha virt. eigenvalues --    2.30880   2.34967   2.42726   2.46197   2.47251
 Alpha virt. eigenvalues --    2.48479   2.56152   2.59479   2.60225   2.63616
 Alpha virt. eigenvalues --    2.70053   2.77326   2.78547   2.80984   2.88059
 Alpha virt. eigenvalues --    2.89043   2.91960   2.95744   2.98083   2.99820
 Alpha virt. eigenvalues --    3.00410   3.00911   3.07340   3.09610   3.11405
 Alpha virt. eigenvalues --    3.12006   3.16724   3.17638   3.20964   3.28430
 Alpha virt. eigenvalues --    3.29500   3.33283   3.35300   3.37225   3.37661
 Alpha virt. eigenvalues --    3.40313   3.40614   3.41582   3.42433   3.43470
 Alpha virt. eigenvalues --    3.45642   3.49291   3.53879   3.57132   3.60192
 Alpha virt. eigenvalues --    3.62847   3.63965   3.66785   3.68964   3.70249
 Alpha virt. eigenvalues --    3.78460   3.93652   4.07740   4.11719   4.13820
 Alpha virt. eigenvalues --    4.26466   4.28110   4.30647   4.37394   4.38735
 Alpha virt. eigenvalues --    4.55284   4.60881   4.73973   4.84561   5.69251
 Alpha virt. eigenvalues --    5.74069   5.74767   5.76092   5.78767   5.80288
 Alpha virt. eigenvalues --    5.81133   5.82520   5.91523   5.97516   6.01103
 Alpha virt. eigenvalues --    6.15911   8.91557  18.54421  18.56505  18.61769
 Alpha virt. eigenvalues --   25.11165  25.13611  25.19918  25.26790  51.74058
 Alpha virt. eigenvalues --   51.76116  51.76382  51.82546 192.66161
          Condensed to atoms (all electrons):
              1          2          3          4          5          6
     1  S   14.366376   -.159203    .300070    .272002    .300106    .024336
     2  O    -.159203   8.439358    .013955    .027549    .013432    .120600
     3  O     .300070    .013955   8.620124   -.182487   -.141502    .003303
     4  O     .272002    .027549   -.182487   8.586512   -.182725   -.020513
     5  O     .300106    .013432   -.141502   -.182725   8.621266    .003700
     6  C     .024336    .120600    .003303   -.020513    .003700   7.048268
     7  C    -.103290   -.134378   -.005709    .027146   -.006015  -1.507376
     8  C    -.079371    .057770    .003688   -.000483    .003706    .419718
     9  C    -.012118   -.002737   -.000748    .000765   -.000759   -.493339
    10  H     .016432   -.037625   -.008151    .000143    .005267    .447469
    11  H     .016479   -.037737    .005272    .000156   -.008260    .447569
    12  H     .005258   -.001057    .000458    .000039   -.000356   -.058436
    13  H     .005265   -.001039   -.000355    .000039    .000460   -.058280
    14  H     .000851   -.000720    .000115   -.000004   -.000303   -.002244
    15  H     .000855   -.000719   -.000302   -.000004    .000115   -.002120
    16  H     .000019   -.000055    .000000   -.000001    .000002    .005374
    17  H     .000009    .000109    .000000    .000000    .000000    .006528
    18  H     .000019   -.000055    .000002   -.000001    .000000    .005375
              7          8          9         10         11         12
     1  S    -.103290   -.079371   -.012118    .016432    .016479    .005258
     2  O    -.134378    .057770   -.002737   -.037625   -.037737   -.001057
     3  O    -.005709    .003688   -.000748   -.008151    .005272    .000458
     4  O     .027146   -.000483    .000765    .000143    .000156    .000039
     5  O    -.006015    .003706   -.000759    .005267   -.008260   -.000356
     6  C   -1.507376    .419718   -.493339    .447469    .447569   -.058436
     7  C    7.711147  -1.086151    .499744   -.039243   -.039160    .496409
     8  C   -1.086151   6.478309   -.379692   -.033142   -.033164   -.087222
     9  C     .499744   -.379692   5.922823   -.000457   -.000449   -.002493
    10  H    -.039243   -.033142   -.000457    .513088   -.041288   -.005684
    11  H    -.039160   -.033164   -.000449   -.041288    .512878    .005000
    12  H     .496409   -.087222   -.002493   -.005684    .005000    .553571
    13  H     .496191   -.087112   -.002534    .004999   -.005685   -.036807
    14  H    -.067526    .461107   -.047974   -.000549    .004020    .009024
    15  H    -.067622    .461116   -.048020    .004015   -.000550   -.009273
    16  H    -.040967    .008390    .401379   -.000030    .000021   -.000201
    17  H     .029720   -.061718    .402282   -.000010   -.000010   -.000080
    18  H    -.040975    .008456    .401323    .000021   -.000030    .003331
             13         14         15         16         17         18
     1  S     .005265    .000851    .000855    .000019    .000009    .000019
     2  O    -.001039   -.000720   -.000719   -.000055    .000109   -.000055
     3  O    -.000355    .000115   -.000302    .000000    .000000    .000002
     4  O     .000039   -.000004   -.000004   -.000001    .000000   -.000001
     5  O     .000460   -.000303    .000115    .000002    .000000    .000000
     6  C    -.058280   -.002244   -.002120    .005374    .006528    .005375
     7  C     .496191   -.067526   -.067622   -.040967    .029720   -.040975
     8  C    -.087112    .461107    .461116    .008390   -.061718    .008456
     9  C    -.002534   -.047974   -.048020    .401379    .402282    .401323
    10  H     .004999   -.000549    .004015   -.000030   -.000010    .000021
    11  H    -.005685    .004020   -.000550    .000021   -.000010   -.000030
    12  H    -.036807    .009024   -.009273   -.000201   -.000080    .003331
    13  H     .553523   -.009271    .009024    .003331   -.000080   -.000200
    14  H    -.009271    .580417   -.043528   -.005218   -.003196    .005439
    15  H     .009024   -.043528    .580416    .005441   -.003197   -.005217
    16  H     .003331   -.005218    .005441    .565532   -.026945   -.036260
    17  H    -.000080   -.003196   -.003197   -.026945    .571148   -.026936
    18  H    -.000200    .005439   -.005217   -.036260   -.026936    .565514
 Mulliken atomic charges:
              1
     1  S    1.045904
     2  O    -.297449
     3  O    -.607732
     4  O    -.528135
     5  O    -.608134
     6  C    -.389933
     7  C    -.121944
     8  C    -.054206
     9  C    -.636994
    10  H     .174745
    11  H     .174938
    12  H     .128520
    13  H     .128534
    14  H     .119561
    15  H     .119571
    16  H     .120187
    17  H     .112375
    18  H     .120192
 Sum of Mulliken charges=  -1.00000
 Atomic charges with hydrogens summed into heavy atoms:
              1
     1  S    1.045904
     2  O    -.297449
     3  O    -.607732
     4  O    -.528135
     5  O    -.608134
     6  C    -.040250
     7  C     .135110
     8  C     .184926
     9  C    -.284240
    10  H     .000000
    11  H     .000000
    12  H     .000000
    13  H     .000000
    14  H     .000000
    15  H     .000000
    16  H     .000000
    17  H     .000000
    18  H     .000000
 Sum of Mulliken charges=  -1.00000
 Electronic spatial extent (au):  <R**2>=  3235.6372
 Charge=    -1.0000 electrons
 Dipole moment (field-independent basis, Debye):
    X=     -.0006    Y=     1.4942    Z=     3.0990  Tot=     3.4404
 Quadrupole moment (field-independent basis, Debye-Ang):
   XX=   -73.3711   YY=   -72.9676   ZZ=   -66.8665
   XY=     -.0082   XZ=      .0058   YZ=     2.7312
 Traceless Quadrupole moment (field-independent basis, Debye-Ang):
   XX=    -2.3027   YY=    -1.8992   ZZ=     4.2019
   XY=     -.0082   XZ=      .0058   YZ=     2.7312
 Octapole moment (field-independent basis, Debye-Ang**2):
  XXX=     -.2823  YYY=  -134.9761  ZZZ=  -387.4923  XYY=     -.1155
  XXY=   -53.9861  XXZ=  -112.9921  XZZ=     -.1313  YZZ=   -53.3522
  YYZ=  -118.6678  XYZ=      .0034
 Hexadecapole moment (field-independent basis, Debye-Ang**3):
 XXXX=  -235.1099 YYYY=  -775.3265 ZZZZ= -3777.3919 XXXY=     -.5794
 XXXZ=    -1.2814 YYYX=     -.5958 YYYZ=  -653.6056 ZZZX=    -1.5267
 ZZZY=  -720.2459 XXYY=  -164.9867 XXZZ=  -617.8724 YYZZ=  -749.8419
 XXYZ=  -209.7839 YYXZ=     -.4573 ZZXY=     -.2624
 N-N= 5.861923156057E+02 E-N=-3.205386904550E+03  KE= 8.528904497201E+02
  Exact polarizability:  71.589    .025  76.899    .010   7.831  89.864
 Approx polarizability:  69.440    .021  70.828   -.005    .292  65.503
 AllDun Frequency-dependent properties on file 20721 Mask=      11 NFrqRd=     2 NDeriv=     1 LenFil=      58:
 Frequencies=     .000000     .056954
 Property number 1 -- Alpha(-w,w) frequency  1     .000000:
               1            2            3
      1  .715890E+02  .248456E-01  .102146E-01
      2  .248456E-01  .768992E+02  .783143E+01
      3  .102146E-01  .783143E+01  .898644E+02
 Property number 1 -- Alpha(-w,w) frequency  2     .056954:
               1            2            3
      1  .722984E+02  .252782E-01  .103460E-01
      2  .252782E-01  .776826E+02  .795845E+01
      3  .103460E-01  .795845E+01  .909150E+02
 Property number 5 -- Beta(-w,w,0) frequency  1     .000000:
               1
      1  .189510E+00
      2 -.911228E+01
      3  .417100E-01
      4  .257937E+02
      5  .304226E-01
      6  .456712E-01
      7 -.911228E+01
      8  .417100E-01
      9  .647359E+02
     10  .304226E-01
     11  .525909E+02
     12  .367473E+02
     13  .257937E+02
     14  .304226E-01
     15  .525909E+02
     16  .456712E-01
     17  .367473E+02
     18  .745736E+02
 Property number 5 -- Beta(-w,w,0) frequency  2     .056954:
               1
      1  .198336E+00
      2 -.961611E+01
      3  .428285E-01
      4  .268414E+02
      5  .315672E-01
      6  .488555E-01
      7 -.959882E+01
      8  .430458E-01
      9  .669269E+02
     10  .317401E-01
     11  .545599E+02
     12  .380953E+02
     13  .267328E+02
     14  .317075E-01
     15  .542459E+02
     16  .488778E-01
     17  .380123E+02
     18  .784290E+02
 1\1\GINC-D131-138\SP\RHF\6-311+G(d,p)\C4H9O4S1(1-)\DENNIS\10-Jan-2005\
 0\\#RHF/6-311+G(D,P) POLAR CPHF=RDFREQ NOSYMMETRY\\step 1\\-1,1\S,0,0.
 ,-0.0025,0.0375\O,0,0.0012,-0.0283,1.6132\O,0,-1.2886,0.7471,-0.384\O,
 0,-0.0001,-1.4872,-0.3112\O,0,1.288,0.7498,-0.3858\C,0,0.0018,1.2892,2
 .2732\C,0,0.003,1.0367,3.7882\C,0,0.0036,2.3049,4.5215\C,0,0.0048,2.07
 87,6.1082\H,0,-0.8791,1.8187,1.9422\H,0,0.8822,1.8186,1.9408\H,0,-0.87
 15,0.4595,4.0687\H,0,0.8778,0.4594,4.0673\H,0,0.8763,2.8787,4.2083\H,0
 ,-0.8694,2.8787,4.2097\H,0,0.8817,1.5236,6.4373\H,0,0.0053,3.0267,6.64
 1\H,0,-0.8715,1.5236,6.4387\\Version=MacOSX-G03RevB.04\HF=-853.7711004
 \RMSD=3.895e-09\Dipole=0.0024363,1.9049774,4.6011185\Polar=71.5890064,
 0.0248456,76.8992112,0.0102146,7.8314274,89.8643926\HyperPolar=0.18951
 04,-9.1122785,0.04171,64.735862,25.7937118,0.0304226,52.5908778,0.0456
 712,36.747269,74.5735886\PG=C01 [X(C4H9O4S1)]\\@


 VIRTUE IS LEARNED AT YOUR MOTHER'S KNEE,
 VICES ARE PICKED UP AT SOME OTHER JOINT.
 Job cpu time:  0 days  1 hours 59 minutes 34.4 seconds.
 File lengths (MBytes):  RWF=     83 Int=      0 D2E=      0 Chk=     10 Scr=      1
 Normal termination of Gaussian 03 at Mon Jan 10 22:08:29 2005.
